# epsilon and Z* of atoms 1 5
   6.47906716    0.00000000    0.00000000    0.00000000    6.47906716    0.00000000    0.00000000    0.00000000    6.47906716 
  -2.66578885    0.00000000    0.00000000    0.00000000   -2.66578885    0.00000000    0.00000000    0.00000000   -2.66578885 
   2.66578885    0.00000000    0.00000000    0.00000000    2.66578885    0.00000000    0.00000000    0.00000000    2.66578885 
