natom:   64
displacements:
- atom:    1
  displacement:
    [   0.0100000000000000,  0.0000000000000000,  0.0000000000000000 ]
- atom:   33
  displacement:
    [   0.0100000000000000,  0.0000000000000000,  0.0000000000000000 ]
lattice:
- [     8.9908348199999999,     0.0000000000000000,     0.0000000000000000 ] # a
- [     0.0000000000000000,     8.9908348199999999,     0.0000000000000000 ] # b
- [     0.0000000000000000,     0.0000000000000000,     8.9908348199999999 ] # c
atoms:
- symbol: N  # 1
  position: [  0.1250000000000000,  0.1250000000000000,  0.1250000000000000 ]
  mass: 14.006700
- symbol: N  # 2
  position: [  0.6250000000000000,  0.1250000000000000,  0.1250000000000000 ]
  mass: 14.006700
- symbol: N  # 3
  position: [  0.1250000000000000,  0.6250000000000000,  0.1250000000000000 ]
  mass: 14.006700
- symbol: N  # 4
  position: [  0.6250000000000000,  0.6250000000000000,  0.1250000000000000 ]
  mass: 14.006700
- symbol: N  # 5
  position: [  0.1250000000000000,  0.1250000000000000,  0.6250000000000000 ]
  mass: 14.006700
- symbol: N  # 6
  position: [  0.6250000000000000,  0.1250000000000000,  0.6250000000000000 ]
  mass: 14.006700
- symbol: N  # 7
  position: [  0.1250000000000000,  0.6250000000000000,  0.6250000000000000 ]
  mass: 14.006700
- symbol: N  # 8
  position: [  0.6250000000000000,  0.6250000000000000,  0.6250000000000000 ]
  mass: 14.006700
- symbol: N  # 9
  position: [  0.1250000000000000,  0.3750000000000000,  0.3750000000000000 ]
  mass: 14.006700
- symbol: N  # 10
  position: [  0.6250000000000000,  0.3750000000000000,  0.3750000000000000 ]
  mass: 14.006700
- symbol: N  # 11
  position: [  0.1250000000000000,  0.8750000000000000,  0.3750000000000000 ]
  mass: 14.006700
- symbol: N  # 12
  position: [  0.6250000000000000,  0.8750000000000000,  0.3750000000000000 ]
  mass: 14.006700
- symbol: N  # 13
  position: [  0.1250000000000000,  0.3750000000000000,  0.8750000000000000 ]
  mass: 14.006700
- symbol: N  # 14
  position: [  0.6250000000000000,  0.3750000000000000,  0.8750000000000000 ]
  mass: 14.006700
- symbol: N  # 15
  position: [  0.1250000000000000,  0.8750000000000000,  0.8750000000000000 ]
  mass: 14.006700
- symbol: N  # 16
  position: [  0.6250000000000000,  0.8750000000000000,  0.8750000000000000 ]
  mass: 14.006700
- symbol: N  # 17
  position: [  0.3750000000000000,  0.1250000000000000,  0.3750000000000000 ]
  mass: 14.006700
- symbol: N  # 18
  position: [  0.8750000000000000,  0.1250000000000000,  0.3750000000000000 ]
  mass: 14.006700
- symbol: N  # 19
  position: [  0.3750000000000000,  0.6250000000000000,  0.3750000000000000 ]
  mass: 14.006700
- symbol: N  # 20
  position: [  0.8750000000000000,  0.6250000000000000,  0.3750000000000000 ]
  mass: 14.006700
- symbol: N  # 21
  position: [  0.3750000000000000,  0.1250000000000000,  0.8750000000000000 ]
  mass: 14.006700
- symbol: N  # 22
  position: [  0.8750000000000000,  0.1250000000000000,  0.8750000000000000 ]
  mass: 14.006700
- symbol: N  # 23
  position: [  0.3750000000000000,  0.6250000000000000,  0.8750000000000000 ]
  mass: 14.006700
- symbol: N  # 24
  position: [  0.8750000000000000,  0.6250000000000000,  0.8750000000000000 ]
  mass: 14.006700
- symbol: N  # 25
  position: [  0.3750000000000000,  0.3750000000000000,  0.1250000000000000 ]
  mass: 14.006700
- symbol: N  # 26
  position: [  0.8750000000000000,  0.3750000000000000,  0.1250000000000000 ]
  mass: 14.006700
- symbol: N  # 27
  position: [  0.3750000000000000,  0.8750000000000000,  0.1250000000000000 ]
  mass: 14.006700
- symbol: N  # 28
  position: [  0.8750000000000000,  0.8750000000000000,  0.1250000000000000 ]
  mass: 14.006700
- symbol: N  # 29
  position: [  0.3750000000000000,  0.3750000000000000,  0.6250000000000000 ]
  mass: 14.006700
- symbol: N  # 30
  position: [  0.8750000000000000,  0.3750000000000000,  0.6250000000000000 ]
  mass: 14.006700
- symbol: N  # 31
  position: [  0.3750000000000000,  0.8750000000000000,  0.6250000000000000 ]
  mass: 14.006700
- symbol: N  # 32
  position: [  0.8750000000000000,  0.8750000000000000,  0.6250000000000000 ]
  mass: 14.006700
- symbol: Ga # 33
  position: [  0.0000000000000000,  0.0000000000000000,  0.0000000000000000 ]
  mass: 69.723000
- symbol: Ga # 34
  position: [  0.5000000000000000,  0.0000000000000000,  0.0000000000000000 ]
  mass: 69.723000
- symbol: Ga # 35
  position: [  0.0000000000000000,  0.5000000000000000,  0.0000000000000000 ]
  mass: 69.723000
- symbol: Ga # 36
  position: [  0.5000000000000000,  0.5000000000000000,  0.0000000000000000 ]
  mass: 69.723000
- symbol: Ga # 37
  position: [  0.0000000000000000,  0.0000000000000000,  0.5000000000000000 ]
  mass: 69.723000
- symbol: Ga # 38
  position: [  0.5000000000000000,  0.0000000000000000,  0.5000000000000000 ]
  mass: 69.723000
- symbol: Ga # 39
  position: [  0.0000000000000000,  0.5000000000000000,  0.5000000000000000 ]
  mass: 69.723000
- symbol: Ga # 40
  position: [  0.5000000000000000,  0.5000000000000000,  0.5000000000000000 ]
  mass: 69.723000
- symbol: Ga # 41
  position: [  0.0000000000000000,  0.2500000000000000,  0.2500000000000000 ]
  mass: 69.723000
- symbol: Ga # 42
  position: [  0.5000000000000000,  0.2500000000000000,  0.2500000000000000 ]
  mass: 69.723000
- symbol: Ga # 43
  position: [  0.0000000000000000,  0.7500000000000000,  0.2500000000000000 ]
  mass: 69.723000
- symbol: Ga # 44
  position: [  0.5000000000000000,  0.7500000000000000,  0.2500000000000000 ]
  mass: 69.723000
- symbol: Ga # 45
  position: [  0.0000000000000000,  0.2500000000000000,  0.7500000000000000 ]
  mass: 69.723000
- symbol: Ga # 46
  position: [  0.5000000000000000,  0.2500000000000000,  0.7500000000000000 ]
  mass: 69.723000
- symbol: Ga # 47
  position: [  0.0000000000000000,  0.7500000000000000,  0.7500000000000000 ]
  mass: 69.723000
- symbol: Ga # 48
  position: [  0.5000000000000000,  0.7500000000000000,  0.7500000000000000 ]
  mass: 69.723000
- symbol: Ga # 49
  position: [  0.2500000000000000,  0.0000000000000000,  0.2500000000000000 ]
  mass: 69.723000
- symbol: Ga # 50
  position: [  0.7500000000000000,  0.0000000000000000,  0.2500000000000000 ]
  mass: 69.723000
- symbol: Ga # 51
  position: [  0.2500000000000000,  0.5000000000000000,  0.2500000000000000 ]
  mass: 69.723000
- symbol: Ga # 52
  position: [  0.7500000000000000,  0.5000000000000000,  0.2500000000000000 ]
  mass: 69.723000
- symbol: Ga # 53
  position: [  0.2500000000000000,  0.0000000000000000,  0.7500000000000000 ]
  mass: 69.723000
- symbol: Ga # 54
  position: [  0.7500000000000000,  0.0000000000000000,  0.7500000000000000 ]
  mass: 69.723000
- symbol: Ga # 55
  position: [  0.2500000000000000,  0.5000000000000000,  0.7500000000000000 ]
  mass: 69.723000
- symbol: Ga # 56
  position: [  0.7500000000000000,  0.5000000000000000,  0.7500000000000000 ]
  mass: 69.723000
- symbol: Ga # 57
  position: [  0.2500000000000000,  0.2500000000000000,  0.0000000000000000 ]
  mass: 69.723000
- symbol: Ga # 58
  position: [  0.7500000000000000,  0.2500000000000000,  0.0000000000000000 ]
  mass: 69.723000
- symbol: Ga # 59
  position: [  0.2500000000000000,  0.7500000000000000,  0.0000000000000000 ]
  mass: 69.723000
- symbol: Ga # 60
  position: [  0.7500000000000000,  0.7500000000000000,  0.0000000000000000 ]
  mass: 69.723000
- symbol: Ga # 61
  position: [  0.2500000000000000,  0.2500000000000000,  0.5000000000000000 ]
  mass: 69.723000
- symbol: Ga # 62
  position: [  0.7500000000000000,  0.2500000000000000,  0.5000000000000000 ]
  mass: 69.723000
- symbol: Ga # 63
  position: [  0.2500000000000000,  0.7500000000000000,  0.5000000000000000 ]
  mass: 69.723000
- symbol: Ga # 64
  position: [  0.7500000000000000,  0.7500000000000000,  0.5000000000000000 ]
  mass: 69.723000