64   
2    

1    
  0.0100000000000000   0.0000000000000000   0.0000000000000000
  -0.1828098200    0.0000000000    0.0000000000
   0.0035057700    0.0000000000    0.0000000000
  -0.0023270700    0.0000000000    0.0000000000
   0.0052065300    0.0000000000    0.0000000000
  -0.0023270700    0.0000000000    0.0000000000
   0.0052065300    0.0000000000    0.0000000000
  -0.0009747400    0.0000000000    0.0000000000
   0.0008680900    0.0000000000    0.0000000000
  -0.0029817400    0.0013058100    0.0013058100
   0.0024558200   -0.0000645900   -0.0000645900
  -0.0029711000    0.0013503500   -0.0013503500
   0.0024560500   -0.0000692300    0.0000692300
  -0.0029711000   -0.0013503500    0.0013503500
   0.0024560500    0.0000692300   -0.0000692300
  -0.0029817400   -0.0013058100   -0.0013058100
   0.0024558200    0.0000645900    0.0000645900
   0.0069152000   -0.0013233000    0.0089260900
   0.0068587000   -0.0013339500   -0.0088200000
  -0.0000817400    0.0000656500    0.0009956900
  -0.0000787900    0.0000692500   -0.0009904000
   0.0069152000    0.0013233000   -0.0089260900
   0.0068587000    0.0013339500    0.0088200000
  -0.0000817400   -0.0000656500   -0.0009956900
  -0.0000787900   -0.0000692500    0.0009904000
   0.0069152000    0.0089260900   -0.0013233000
   0.0068587000   -0.0088200000   -0.0013339500
   0.0069152000   -0.0089260900    0.0013233000
   0.0068587000    0.0088200000    0.0013339500
  -0.0000817400    0.0009956900    0.0000656500
  -0.0000787900   -0.0009904000    0.0000692500
  -0.0000817400   -0.0009956900   -0.0000656500
  -0.0000787900    0.0009904000   -0.0000692500
   0.0354670600    0.0204157600    0.0204157600
  -0.0051966400    0.0004359900    0.0004359900
   0.0027147500    0.0019524700   -0.0017001600
  -0.0029380300   -0.0015361700    0.0026887000
   0.0027147500   -0.0017001600    0.0019524700
  -0.0029380300    0.0026887000   -0.0015361700
   0.0012629600    0.0000406500    0.0000406500
  -0.0010983900   -0.0000211500   -0.0000211500
   0.0354670600   -0.0204157600   -0.0204157600
  -0.0051966400   -0.0004359900   -0.0004359900
   0.0027147500   -0.0019524700    0.0017001600
  -0.0029380300    0.0015361700   -0.0026887000
   0.0027147500    0.0017001600   -0.0019524700
  -0.0029380300   -0.0026887000    0.0015361700
   0.0012629600   -0.0000406500   -0.0000406500
  -0.0010983900    0.0000211500    0.0000211500
   0.0360551800   -0.0214526900    0.0214526900
  -0.0051825000   -0.0004246300    0.0004246300
   0.0027332700   -0.0019491400   -0.0017194300
  -0.0029382700    0.0015409400    0.0026820900
   0.0027332700    0.0017194300    0.0019491400
  -0.0029382700   -0.0026820900   -0.0015409400
   0.0012897700   -0.0000365500    0.0000365500
  -0.0011007500    0.0000191500   -0.0000191500
   0.0360551800    0.0214526900   -0.0214526900
  -0.0051825000    0.0004246300   -0.0004246300
   0.0027332700    0.0019491400    0.0017194300
  -0.0029382700   -0.0015409400   -0.0026820900
   0.0027332700   -0.0017194300   -0.0019491400
  -0.0029382700    0.0026820900    0.0015409400
   0.0012897700    0.0000365500   -0.0000365500
  -0.0011007500   -0.0000191500    0.0000191500

33   
  0.0100000000000000   0.0000000000000000   0.0000000000000000
   0.0360621000    0.0214333600    0.0214333600
  -0.0051796300    0.0019375100    0.0019375100
   0.0027232100    0.0004281800   -0.0017111400
  -0.0029478200   -0.0015379400    0.0000365800
   0.0027232100   -0.0017111400    0.0004281800
  -0.0029478200    0.0000365800   -0.0015379400
   0.0012741200    0.0026826400    0.0026826400
  -0.0011018000   -0.0000220700   -0.0000220700
   0.0012741200   -0.0026826400   -0.0026826400
  -0.0011018000    0.0000220700    0.0000220700
   0.0027232100    0.0017111400   -0.0004281800
  -0.0029478200   -0.0000365800    0.0015379400
   0.0027232100   -0.0004281800    0.0017111400
  -0.0029478200    0.0015379400   -0.0000365800
   0.0360621000   -0.0214333600   -0.0214333600
  -0.0051796300   -0.0019375100   -0.0019375100
  -0.0029279800   -0.0000418300   -0.0015338700
   0.0027267400    0.0017078400    0.0004284500
  -0.0010934900    0.0000224200   -0.0000224200
   0.0012759100   -0.0026898900    0.0026898900
  -0.0051918600   -0.0019617800    0.0019617800
   0.0354539600   -0.0204369100    0.0204369100
  -0.0029279800    0.0015338700    0.0000418300
   0.0027267400   -0.0004284500   -0.0017078400
  -0.0029279800   -0.0015338700   -0.0000418300
   0.0027267400    0.0004284500    0.0017078400
  -0.0051918600    0.0019617800   -0.0019617800
   0.0354539600    0.0204369100   -0.0204369100
  -0.0010934900   -0.0000224200    0.0000224200
   0.0012759100    0.0026898900   -0.0026898900
  -0.0029279800    0.0000418300    0.0015338700
   0.0027267400   -0.0017078400   -0.0004284500
  -0.1790907600    0.0000000000    0.0000000000
   0.0071672500    0.0000000000    0.0000000000
  -0.0023797000    0.0000000000    0.0000000000
   0.0017423800    0.0000000000    0.0000000000
  -0.0023797000    0.0000000000    0.0000000000
   0.0017423800    0.0000000000    0.0000000000
  -0.0050691300    0.0000000000    0.0000000000
   0.0014871900    0.0000000000    0.0000000000
  -0.0108018500    0.0033088500    0.0033088500
   0.0028389700   -0.0011255900   -0.0011255900
  -0.0108149100    0.0033520300   -0.0033520300
   0.0028573000   -0.0011415100    0.0011415100
  -0.0108149100   -0.0033520300    0.0033520300
   0.0028573000    0.0011415100   -0.0011415100
  -0.0108018500   -0.0033088500   -0.0033088500
   0.0028389700    0.0011255900    0.0011255900
   0.0099764900   -0.0033130300    0.0124530600
   0.0099432000   -0.0033485600   -0.0123332500
   0.0009526700    0.0011297300   -0.0004798400
   0.0009591200    0.0011376700    0.0004831600
   0.0099764900    0.0033130300   -0.0124530600
   0.0099432000    0.0033485600    0.0123332500
   0.0009526700   -0.0011297300    0.0004798400
   0.0009591200   -0.0011376700   -0.0004831600
   0.0099764900    0.0124530600   -0.0033130300
   0.0099432000   -0.0123332500   -0.0033485600
   0.0099764900   -0.0124530600    0.0033130300
   0.0099432000    0.0123332500    0.0033485600
   0.0009526700   -0.0004798400    0.0011297300
   0.0009591200    0.0004831600    0.0011376700
   0.0009526700    0.0004798400   -0.0011297300
   0.0009591200   -0.0004831600   -0.0011376700
